10
Lattice="0.0 2.86805 0.0 2.86805 0.0 0.0 0.0 0.0 -15.6918" Properties=species:S:1:pos:R:3:forces:R:3 _name="_JSON [\"train_1st_stage_0\"]" _labels="_JSON [\"active_learning\"]" _id=6170079294091198669 energy=-4.940626021 stress="-0.58405 -0.0 -2e-05 -0.0 -0.58403 -0.0 -2e-05 -0.0 -2.78469" pbc="T T T"
Al       0.00000000       0.00000000     -15.20240000       0.00001900       0.00001900      -0.21532400
Al       1.43403000       1.43403000      -1.56918000      -0.00000800      -0.00000800       0.00010000
Al       0.00000000       0.00000000      -3.62776000       0.00001900       0.00001900       0.21578900
Al       0.00000000       0.00000000      -6.53437000       0.00002900       0.00003000       0.08823200
Al       0.00000000       0.00000000      -9.41506000       0.00003100       0.00003000       0.00007700
Al       0.00000000       0.00000000     -12.29570000       0.00003000       0.00003000      -0.08877600
Ni       1.43403000       1.43403000      -5.07094000      -0.00002800      -0.00002900      -0.23642300
Ni       1.43403000       1.43403000      -7.97012000      -0.00003000      -0.00003100       0.00098700
Ni       1.43403000       1.43403000     -10.86000000      -0.00003200      -0.00002900      -0.00139900
Ni       1.43403000       1.43403000     -13.75920000      -0.00002900      -0.00003100       0.23673600
10
Lattice="0.0 2.876131 0.0 2.876131 0.0 0.0 -1e-06 -0.0 -15.902605" Properties=species:S:1:pos:R:3:forces:R:3 _name="_JSON [\"train_1st_stage_1\"]" _labels="_JSON [\"active_learning\"]" _id=-4328269232075836100 energy=-4.942888518 stress="1.60442 -0.0 1e-05 -0.0 1.60442 0.0 1e-05 0.0 -0.26242" pbc="T T T"
Al      -0.00000000       0.00000000     -15.41716000       0.00001100       0.00001000      -0.03699800
Al       1.43807000       1.43807000      -1.59026000      -0.00000500      -0.00000500      -0.00007200
Al       0.00000000       0.00000000      -3.66595000       0.00000900       0.00001000       0.03731000
Al       0.00000000       0.00000000      -6.61784000       0.00001200       0.00001200       0.01671800
Al       0.00000000       0.00000000      -9.54154000       0.00001100       0.00001200      -0.00030300
Al       0.00000000       0.00000000     -12.46522000       0.00001200       0.00001200      -0.01707800
Ni       1.43807000       1.43807000      -5.15062000      -0.00001400      -0.00001300      -0.13316800
Ni       1.43807000       1.43807000      -8.07714000      -0.00001200      -0.00001200       0.03855900
Ni       1.43807000       1.43807000     -11.00596000      -0.00001100      -0.00001200      -0.03937400
Ni       1.43807000       1.43807000     -13.93247000      -0.00001300      -0.00001300       0.13440600
10
Lattice="0.0 2.875818 0.0 2.875818 0.0 0.0 -1e-06 -0.0 -15.894438" Properties=species:S:1:pos:R:3:forces:R:3 _name="_JSON [\"train_1st_stage_2\"]" _labels="_JSON [\"active_learning\"]" _id=-2466939027887265627 energy=-4.9428955960000005 stress="1.74786 0.0 1e-05 0.0 1.74785 0.0 1e-05 0.0 -0.13098" pbc="T T T"
Al      -0.00000000       0.00000000     -15.40884000       0.00001100       0.00001000      -0.04378600
Al       1.43791000       1.43791000      -1.58944000      -0.00000500      -0.00000500      -0.00033700
Al       0.00000000       0.00000000      -3.66447000       0.00001000       0.00001000       0.04269600
Al       0.00000000       0.00000000      -6.61461000       0.00001300       0.00001300       0.02031100
Al       0.00000000       0.00000000      -9.53664000       0.00001200       0.00001300       0.00154300
Al       0.00000000       0.00000000     -12.45865000       0.00001200       0.00001300      -0.02025500
Ni       1.43791000       1.43791000      -5.14754000      -0.00001500      -0.00001400      -0.13719100
Ni       1.43791000       1.43791000      -8.07300000      -0.00001300      -0.00001300       0.03731100
Ni       1.43791000       1.43791000     -11.00031000      -0.00001200      -0.00001300      -0.03879000
Ni       1.43791000       1.43791000     -13.92576000      -0.00001400      -0.00001300       0.13849800
10
Lattice="0.0 2.857334 0.0 2.857335 0.0 0.0 -1e-06 -0.0 -16.051396" Properties=species:S:1:pos:R:3:forces:R:3 _name="_JSON [\"train_1st_stage_3\"]" _labels="_JSON [\"active_learning\"]" _id=8521167140146517930 energy=-4.944882393 stress="0.97141 0.0 1e-05 0.0 0.97141 0.0 1e-05 0.0 0.20588" pbc="T T T"
Al       0.00000000       0.00000000     -15.57034000       0.00000200       0.00000200       0.04715700
Al       1.42867000       1.42867000      -1.60515000      -0.00000200      -0.00000200      -0.00018300
Al       0.00000000       0.00000000      -3.69135000       0.00000100       0.00000100      -0.04760300
Al       0.00000000       0.00000000      -6.67598000      -0.00000600      -0.00000600      -0.05081100
Al       0.00000000       0.00000000      -9.63074000      -0.00000600      -0.00000600      -0.00193000
Al       0.00000000       0.00000000     -12.58564000      -0.00000600      -0.00000600       0.05207700
Ni       1.42867000       1.42867000      -5.21293000       0.00000200       0.00000200      -0.00701200
Ni       1.42867000       1.42867000      -8.15088000       0.00000600       0.00000600       0.06340200
Ni       1.42867000       1.42867000     -11.11086000       0.00000600       0.00000500      -0.06196700
Ni       1.42867000       1.42867000     -14.04864000       0.00000300       0.00000300       0.00686800
10
Lattice="-0.0 2.850107 0.0 2.850107 -0.0 0.0 -1e-06 -0.0 -16.112771" Properties=species:S:1:pos:R:3:forces:R:3 _name="_JSON [\"train_1st_stage_4\"]" _labels="_JSON [\"active_learning\"]" _id=5522373330252213866 energy=-4.945099399 stress="0.6148 0.0 1e-05 0.0 0.61479 0.0 1e-05 0.0 0.29911" pbc="T T T"
Al       0.00000000       0.00000000     -15.63350000      -0.00000100      -0.00000200       0.08319200
Al       1.42506000       1.42506000      -1.61129000      -0.00000100      -0.00000100      -0.00007600
Al       0.00000000       0.00000000      -3.70185000      -0.00000200      -0.00000100      -0.08225600
Al       0.00000000       0.00000000      -6.69998000      -0.00001300      -0.00001400      -0.08276100
Al       0.00000000       0.00000000      -9.66753000      -0.00001300      -0.00001200      -0.00067800
Al       0.00000000       0.00000000     -12.63530000      -0.00001400      -0.00001400       0.08059400
Ni       1.42505000       1.42505000      -5.23852000       0.00000800       0.00000800       0.05027600
Ni       1.42505000       1.42505000      -8.18133000       0.00001300       0.00001300       0.07468400
Ni       1.42505000       1.42505000     -11.15409000       0.00001400       0.00001300      -0.07234100
Ni       1.42505000       1.42505000     -14.09667000       0.00000900       0.00001000      -0.05063400
10
Lattice="-0.0 2.843006 0.0 2.843006 -0.0 0.0 -0.0 -0.0 -16.071023" Properties=species:S:1:pos:R:3:forces:R:3 _name="_JSON [\"train_1st_stage_5\"]" _labels="_JSON [\"active_learning\"]" _id=-7186990379584358141 energy=-4.945318636 stress="-0.3297 -0.0 0.0 -0.0 -0.3297 0.0 0.0 0.0 -0.70864" pbc="T T T"
Al       0.00000000       0.00000000     -15.58774000       0.00000100       0.00000100       0.02488700
Al       1.42151000       1.42151000      -1.60712000      -0.00000200      -0.00000200      -0.00003300
Al       0.00000000       0.00000000      -3.69747000       0.00000100       0.00000000      -0.02478800
Al       0.00000000       0.00000000      -6.68729000      -0.00000400      -0.00000400      -0.02438200
Al       0.00000000       0.00000000      -9.64253000      -0.00000400      -0.00000300      -0.00064100
Al       0.00000000       0.00000000     -12.59800000      -0.00000400      -0.00000400       0.02547100
Ni       1.42150000       1.42150000      -5.22083000       0.00000200       0.00000300       0.00213000
Ni       1.42150000       1.42150000      -8.15648000       0.00000300       0.00000400       0.03359100
Ni       1.42150000       1.42150000     -11.12871000       0.00000400       0.00000300      -0.03395500
Ni       1.42150000       1.42150000     -14.06428000       0.00000300       0.00000300      -0.00228000
10
Lattice="-0.0 2.844814 0.0 2.844815 -0.0 0.0 -1e-06 -0.0 -16.081657" Properties=species:S:1:pos:R:3:forces:R:3 _name="_JSON [\"train_1st_stage_6\"]" _labels="_JSON [\"active_learning\"]" _id=-5182154845052936260 energy=-4.945343748 stress="-0.22205 -0.0 1e-05 -0.0 -0.22206 0.0 1e-05 0.0 -0.59274" pbc="T T T"
Al       0.00000000       0.00000000     -15.59940000       0.00000000       0.00000000       0.03987500
Al       1.42241000       1.42241000      -1.60818000      -0.00000200      -0.00000100       0.00013400
Al       0.00000000       0.00000000      -3.69858000      -0.00000000       0.00000000      -0.04020000
Al       0.00000000       0.00000000      -6.69052000      -0.00000600      -0.00000700      -0.03956200
Al       0.00000000       0.00000000      -9.64889000      -0.00000600      -0.00000600      -0.00112400
Al       0.00000000       0.00000000     -12.60750000      -0.00000600      -0.00000600       0.04060900
Ni       1.42241000       1.42241000      -5.22534000       0.00000300       0.00000400       0.01503100
Ni       1.42241000       1.42241000      -8.16281000       0.00000600       0.00000600       0.04377600
Ni       1.42241000       1.42241000     -11.13518000       0.00000600       0.00000500      -0.04271900
Ni       1.42241000       1.42241000     -14.07253000       0.00000400       0.00000400      -0.01582100
10
Lattice="-0.0 2.84577 0.0 2.84577 -0.0 0.0 -1e-06 -0.0 -16.087274" Properties=species:S:1:pos:R:3:forces:R:3 _name="_JSON [\"train_1st_stage_7\"]" _labels="_JSON [\"active_learning\"]" _id=-5866644299372840455 energy=-4.94533461 stress="-0.02138 -0.0 1e-05 -0.0 -0.02139 0.0 1e-05 0.0 -0.3837" pbc="T T T"
Al       0.00000000       0.00000000     -15.60555000       0.00000000      -0.00000000       0.04704100
Al       1.42289000       1.42289000      -1.60874000      -0.00000100      -0.00000100      -0.00001300
Al       0.00000000       0.00000000      -3.69917000      -0.00000000      -0.00000000      -0.04721300
Al       0.00000000       0.00000000      -6.69223000      -0.00000700      -0.00000800      -0.04637200
Al       0.00000000       0.00000000      -9.65226000      -0.00000700      -0.00000700      -0.00117100
Al       0.00000000       0.00000000     -12.61252000      -0.00000800      -0.00000800       0.04801200
Ni       1.42289000       1.42289000      -5.22772000       0.00000400       0.00000500       0.02152600
Ni       1.42289000       1.42289000      -8.16616000       0.00000700       0.00000700       0.04870000
Ni       1.42289000       1.42289000     -11.13859000       0.00000800       0.00000600      -0.04868500
Ni       1.42289000       1.42289000     -14.07689000       0.00000500       0.00000600      -0.02182500
10
Lattice="-0.0 2.845103 0.0 2.845103 -0.0 0.0 -0.0 -0.0 -16.111029" Properties=species:S:1:pos:R:3:forces:R:3 _name="_JSON [\"train_1st_stage_8\"]" _labels="_JSON [\"active_learning\"]" _id=-4269798014592232086 energy=-4.945438578 stress="0.19217 -0.0 0.0 -0.0 0.19216 0.0 0.0 0.0 -0.13659" pbc="T T T"
Al       0.00000000       0.00000000     -15.62564000       0.00000100       0.00000000       0.03731300
Al       1.42256000       1.42256000      -1.61112000      -0.00000200      -0.00000200       0.00043300
Al       0.00000000       0.00000000      -3.70759000       0.00000100       0.00000100      -0.03698900
Al       0.00000000       0.00000000      -6.70495000      -0.00000200      -0.00000200      -0.01314600
Al       0.00000000       0.00000000      -9.66657000      -0.00000200      -0.00000200      -0.00076200
Al       0.00000000       0.00000000     -12.62824000      -0.00000200      -0.00000200       0.01398800
Ni       1.42255000       1.42255000      -5.23386000       0.00000100       0.00000200      -0.00560600
Ni       1.42255000       1.42255000      -8.17540000       0.00000200       0.00000200       0.02536400
Ni       1.42255000       1.42255000     -11.15783000       0.00000200       0.00000100      -0.02614700
Ni       1.42255000       1.42255000     -14.09927000       0.00000200       0.00000200       0.00555300
10
Lattice="-0.0 2.844451 -0.0 2.844451 -0.0 -0.0 0.0 0.0 -16.134252" Properties=species:S:1:pos:R:3:forces:R:3 _name="_JSON [\"train_1st_stage_9\"]" _labels="_JSON [\"active_learning\"]" _id=4514245458133093258 energy=-4.945483457 stress="0.16294 -0.0 -0.0 -0.0 0.16293 -0.0 -0.0 -0.0 -0.14007" pbc="T T T"
Al       0.00000000       0.00000000     -15.64528000       0.00000100       0.00000100       0.02553500
Al       1.42223000       1.42223000      -1.61344000      -0.00000200      -0.00000200      -0.00027400
Al       0.00000000       0.00000000      -3.71582000       0.00000200       0.00000100      -0.02708900
Al       0.00000000       0.00000000      -6.71740000       0.00000300       0.00000300       0.01910600
Al       0.00000000       0.00000000      -9.68057000       0.00000300       0.00000300       0.00246800
Al       0.00000000       0.00000000     -12.64360000       0.00000300       0.00000300      -0.01869800
Ni       1.42223000       1.42223000      -5.23985000      -0.00000100      -0.00000100      -0.03284500
Ni       1.42223000       1.42223000      -8.18443000      -0.00000300      -0.00000300       0.00264000
Ni       1.42223000       1.42223000     -11.17665000      -0.00000300      -0.00000400      -0.00382800
Ni       1.42223000       1.42223000     -14.12116000      -0.00000200      -0.00000100       0.03298400
10
Lattice="0.0 2.841616 -0.0 2.841616 0.0 -0.0 0.0 0.0 -16.154192" Properties=species:S:1:pos:R:3:forces:R:3 _name="_JSON [\"train_1st_stage_10\"]" _labels="_JSON [\"active_learning\"]" _id=6225425770802754739 energy=-4.945547787000001 stress="0.08289 0.0 -0.0 0.0 0.08289 -0.0 -0.0 -0.0 -0.11814" pbc="T T T"
Al       0.00000000       0.00000000     -15.66228000       0.00000100       0.00000100       0.01616300
Al       1.42081000       1.42081000      -1.61545000      -0.00000100      -0.00000100      -0.00006800
Al       0.00000000       0.00000000      -3.72284000       0.00000100       0.00000100      -0.01485100
Al       0.00000000       0.00000000      -6.72546000       0.00000300       0.00000300       0.01029100
Al       0.00000000       0.00000000      -9.69241000       0.00000300       0.00000200      -0.00176900
Al       0.00000000       0.00000000     -12.65943000       0.00000300       0.00000300      -0.00928800
Ni       1.42081000       1.42081000      -5.24773000      -0.00000100      -0.00000100      -0.02769800
Ni       1.42081000       1.42081000      -8.19356000      -0.00000300      -0.00000300       0.00179500
Ni       1.42081000       1.42081000     -11.19152000      -0.00000300      -0.00000300      -0.00193400
Ni       1.42081000       1.42081000     -14.13721000      -0.00000100      -0.00000100       0.02736000
10
Lattice="0.0 2.839698 -0.0 2.839698 0.0 -0.0 0.0 0.0 -16.167683" Properties=species:S:1:pos:R:3:forces:R:3 _name="_JSON [\"train_1st_stage_11\"]" _labels="_JSON [\"active_learning\"]" _id=-4965350043455864691 energy=-4.945574188 stress="0.03339 0.0 -0.0 0.0 0.03339 -0.0 -0.0 -0.0 -0.09374" pbc="T T T"
Al       0.00000000       0.00000000     -15.67378000       0.00000100       0.00000100       0.00814200
Al       1.41985000       1.41985000      -1.61681000      -0.00000100      -0.00000100      -0.00034400
Al       0.00000000       0.00000000      -3.72759000       0.00000100       0.00000100      -0.00779200
Al       0.00000000       0.00000000      -6.73091000       0.00000200       0.00000300       0.00533100
Al       0.00000000       0.00000000      -9.70042000       0.00000200       0.00000200      -0.00226300
Al       0.00000000       0.00000000     -12.67014000       0.00000300       0.00000200      -0.00370000
Ni       1.41985000       1.41985000      -5.25306000      -0.00000100      -0.00000100      -0.02451100
Ni       1.41985000       1.41985000      -8.19973000      -0.00000300      -0.00000300       0.00123000
Ni       1.41985000       1.41985000     -11.20157000      -0.00000300      -0.00000300       0.00058700
Ni       1.41985000       1.41985000     -14.14807000      -0.00000100      -0.00000100       0.02331800
10
Lattice="0.0 2.839679 -0.0 2.839679 0.0 0.0 -0.0 0.0 -16.17328" Properties=species:S:1:pos:R:3:forces:R:3 _name="_JSON [\"train_1st_stage_12\"]" _labels="_JSON [\"active_learning\"]" _id=-2226493638125415761 energy=-4.945582134 stress="-0.11315 0.0 -0.0 0.0 -0.11315 -0.0 -0.0 -0.0 -0.23899" pbc="T T T"
Al       0.00000000       0.00000000     -15.67917000       0.00000000       0.00000100       0.01275100
Al       1.41984000       1.41984000      -1.61739000      -0.00000100      -0.00000100      -0.00026000
Al       0.00000000       0.00000000      -3.72887000       0.00000100       0.00000100      -0.01323400
Al       0.00000000       0.00000000      -6.73295000       0.00000100       0.00000100      -0.00313100
Al       0.00000000       0.00000000      -9.70395000       0.00000100       0.00000100       0.00055800
Al       0.00000000       0.00000000     -12.67472000       0.00000100       0.00000100       0.00256400
Ni       1.41984000       1.41984000      -5.25617000      -0.00000000      -0.00000000      -0.01322700
Ni       1.41984000       1.41984000      -8.20270000      -0.00000100      -0.00000100       0.00344100
Ni       1.41984000       1.41984000     -11.20519000      -0.00000100      -0.00000100      -0.00308600
Ni       1.41984000       1.41984000     -14.15175000      -0.00000000      -0.00000000       0.01362400
10
Lattice="-0.0 2.839624 0.0 2.839624 -0.0 0.0 -0.0 -0.0 -16.190071" Properties=species:S:1:pos:R:3:forces:R:3 _name="_JSON [\"train_1st_stage_13\", \"train_1st_stage_233\"]" _labels="_JSON [\"active_learning\"]" _id=7240731640073043355 energy=-4.945579889999999 stress="0.03708 -0.0 0.0 -0.0 0.03707 0.0 0.0 0.0 -0.01503" pbc="T T T"
Al       0.00000000       0.00000000     -15.69534000      -0.00000000      -0.00000100       0.02720700
Al       1.41982000       1.41982000      -1.61913000      -0.00000100      -0.00000100       0.00037400
Al       0.00000000       0.00000000      -3.73273000      -0.00000100      -0.00000100      -0.02631000
Al       0.00000000       0.00000000      -6.73906000      -0.00000400      -0.00000400      -0.02923700
Al       0.00000000       0.00000000      -9.71454000      -0.00000400      -0.00000400       0.00922600
Al       0.00000000       0.00000000     -12.68847000      -0.00000400      -0.00000400       0.01960600
Ni       1.41981000       1.41981000      -5.26550000       0.00000300       0.00000300       0.01564100
Ni       1.41981000       1.41981000      -8.21160000       0.00000400       0.00000400       0.00868300
Ni       1.41981000       1.41981000     -11.21605000       0.00000400       0.00000400      -0.01291900
Ni       1.41981000       1.41981000     -14.16280000       0.00000300       0.00000300      -0.01227100
10
Lattice="3.58562 -1.5884 0.919005 -4.3837 -4.44595 -8.21911 1.77481 3.509 -0.872513" Properties=species:S:1:pos:R:3:forces:R:3 _name="_JSON [\"train_1st_stage_14\"]" _labels="_JSON [\"active_learning\"]" _id=-7894033628563056518 energy=-4.991777173 stress="-0.31724 -0.00039 -0.0003 -0.00039 -0.32276 -0.01754 -0.0003 -0.01754 -0.36624" pbc="T T T"
Al       3.42984000      -1.55664000       0.67798000       0.00059100      -0.00180400      -0.00606400
Al       2.52449000       0.99190000      -0.21773000       0.00065700      -0.00196400      -0.00596500
Al       2.84249000       0.16945000      -2.88078000       0.00000400      -0.00000300       0.00109400
Al       0.16252000      -0.79155000      -2.90378000      -0.00020600       0.00066200       0.00085500
Al       0.48050000      -1.61400000      -5.56684000      -0.00055100       0.00188500       0.00566800
Al      -2.19965000      -2.57446000      -5.59003000      -0.00058700       0.00174300       0.00570200
Ni       1.78981000      -1.15791000      -1.06090000      -0.00025800       0.00087900       0.00277700
Ni      -0.55962000      -2.97318000      -3.85113000       0.00018800      -0.00121000      -0.00341300
Ni      -1.13325000      -1.28198000      -7.52207000      -0.00022400       0.00242100       0.00698700
Ni      -0.24548000      -3.78606000      -6.48154000       0.00038600      -0.00260800      -0.00764200
10
Lattice="3.591106 -1.590789 0.920499 -4.390429 -4.453576 -8.234014 1.777532 3.514393 -0.873755" Properties=species:S:1:pos:R:3:forces:R:3 _name="_JSON [\"train_1st_stage_15\"]" _labels="_JSON [\"active_learning\"]" _id=3316733203625707613 energy=-4.991620559999999 stress="0.39502 -0.00219 -0.00417 -0.00219 0.39962 0.0095 -0.00417 0.0095 0.42823" pbc="T T T"
Al       3.43512000      -1.55909000       0.67876000      -0.00016000       0.00044900       0.00126900
Al       2.52839000       0.99334000      -0.21832000      -0.00011900       0.00037400       0.00132400
Al       2.84684000       0.16948000      -2.88580000      -0.00011800       0.00017800       0.00027800
Al       0.16275000      -0.79300000      -2.90894000      -0.00004100       0.00000600       0.00033200
Al       0.48120000      -1.61689000      -5.57654000       0.00007800      -0.00047400      -0.00145800
Al      -2.20306000      -2.57886000      -5.59985000       0.00008100      -0.00050100      -0.00145000
Ni       1.79253000      -1.15976000      -1.06274000      -0.00054600       0.00136600       0.00444800
Ni      -0.56048000      -2.97819000      -3.85835000       0.00059800      -0.00140300      -0.00454600
Ni      -1.13501000      -1.28450000      -7.53513000       0.00060800      -0.00059400      -0.00235400
Ni      -0.24585000      -3.79263000      -6.49368000      -0.00038200       0.00059900       0.00215800
10
Lattice="3.588111 -1.589485 0.919684 -4.386755 -4.449413 -8.225877 1.776046 3.511449 -0.873077" Properties=species:S:1:pos:R:3:forces:R:3 _name="_JSON [\"train_1st_stage_16\"]" _labels="_JSON [\"active_learning\"]" _id=7632732321688136586 energy=-4.991739239999999 stress="0.50842 -0.00203 -0.00443 -0.00203 0.50974 0.00207 -0.00443 0.00207 0.51996" pbc="T T T"
Al       3.43224000      -1.55775000       0.67833000       0.00044300      -0.00127600      -0.00430500
Al       2.52626000       0.99255000      -0.21800000       0.00049100      -0.00137900      -0.00423300
Al       2.84446000       0.16946000      -2.88306000       0.00011800      -0.00035600      -0.00060500
Al       0.16263000      -0.79221000      -2.90612000       0.00002300      -0.00002500      -0.00072700
Al       0.48082000      -1.61531000      -5.57124000      -0.00057700       0.00162000       0.00506800
Al      -2.20120000      -2.57646000      -5.59449000      -0.00060100       0.00154500       0.00508500
Ni       1.79105000      -1.15875000      -1.06173000      -0.00036700       0.00103700       0.00333400
Ni      -0.56001000      -2.97546000      -3.85441000       0.00028900      -0.00107000      -0.00319100
Ni      -1.13405000      -1.28312000      -7.52800000       0.00015300       0.00103200       0.00268700
Ni      -0.24565000      -3.78904000      -6.48705000       0.00002600      -0.00112800      -0.00311300
10
Lattice="3.586616 -1.588834 0.919276 -4.384921 -4.447334 -8.221815 1.775304 3.509979 -0.872738" Properties=species:S:1:pos:R:3:forces:R:3 _name="_JSON [\"train_1st_stage_17\", \"train_1st_stage_234\"]" _labels="_JSON [\"active_learning\"]" _id=1752633503203896029 energy=-4.991767899 stress="0.29919 -0.00187 -0.00416 -0.00187 0.29857 -0.00304 -0.00416 -0.00304 0.29571" pbc="T T T"
Al       3.43080000      -1.55708000       0.67812000       0.00074500      -0.00214900      -0.00714800
Al       2.52520000       0.99216000      -0.21784000       0.00080200      -0.00228000      -0.00706100
Al       2.84328000       0.16945000      -2.88169000       0.00011300      -0.00031200      -0.00006900
Al       0.16256000      -0.79181000      -2.90472000      -0.00006200       0.00025200      -0.00027200
Al       0.48063000      -1.61452000      -5.56860000      -0.00080200       0.00240900       0.00747400
Al      -2.20027000      -2.57526000      -5.59181000      -0.00083600       0.00230000       0.00750000
Ni       1.79030000      -1.15825000      -1.06123000      -0.00023100       0.00076600       0.00242700
Ni      -0.55978000      -2.97409000      -3.85244000       0.00013400      -0.00091800      -0.00255600
Ni      -1.13357000      -1.28244000      -7.52444000      -0.00009600       0.00194600       0.00552000
Ni      -0.24555000      -3.78725000      -6.48374000       0.00023500      -0.00201400      -0.00581500
10
Lattice="2.80342 0.017185 0.0 1.33158 11.4481 0.0 0.0 0.0 4.10864" Properties=species:S:1:pos:R:3:forces:R:3 _name="_JSON [\"train_1st_stage_18\"]" _labels="_JSON [\"active_learning\"]" _id=-7797590329253254847 energy=-4.930915047 stress="0.07462 -0.00863 -0.0 -0.00863 -3.08281 0.0 -0.0 0.0 -1.10047" pbc="T T T"
Al       2.79730000       1.01783000       0.00000000       0.00009200       0.07166100      -0.00000000
Al       2.77203000       5.13744000       0.00000000       0.00066100      -0.01171700       0.00000000
Al       2.74685000       9.24553000       0.00000000       0.00004400      -0.08349000      -0.00000000
Al       2.73473000      11.21870000       2.05432000      -0.00004000      -0.07202200       0.00000000
Al       2.78518000       2.99095000       2.05432000       0.00000300       0.08329800       0.00000000
Al       2.76000000       7.09904000       2.05432000      -0.00068200       0.01189000      -0.00000000
Ni       1.38289000       3.07726000       0.00000000       0.00092400      -0.12870400      -0.00000100
Ni       1.35771000       7.18452000       0.00000000       0.00055000       0.15354200       0.00000000
Ni       1.37090000       5.03478000       2.05432000      -0.00063800      -0.15222100      -0.00000000
Ni       1.34572000       9.14204000       2.05432000      -0.00091400       0.12776100       0.00000100
10
Lattice="2.802412 0.017557 0.0 1.331577 11.618415 -0.0 0.0 -0.0 4.130453" Properties=species:S:1:pos:R:3:forces:R:3 _name="_JSON [\"train_1st_stage_19\"]" _labels="_JSON [\"active_learning\"]" _id=3767870468759880777 energy=-4.933570049 stress="1.76832 0.01131 0.0 0.01131 -0.1195 -0.0 0.0 -0.0 0.99222" pbc="T T T"
Al       2.79634000       1.03659000      -0.00000000       0.00002000       0.15380100       0.00000000
Al       2.77128000       5.21339000      -0.00000000       0.00013700       0.01854300       0.00000000
Al       2.74625000       9.37906000      -0.00000000      -0.00062600      -0.15600900       0.00000000
Al       2.73421000      11.38214000       2.06523000       0.00003600      -0.15394300      -0.00000000
Al       2.78430000       3.03963000       2.06523000       0.00066100       0.15663600      -0.00000000
Al       2.75927000       7.20532000       2.06523000      -0.00015800      -0.01863200      -0.00000000
Ni       1.38256000       3.11678000      -0.00000000       0.00105700      -0.07428700      -0.00000000
Ni       1.35755000       7.29894000      -0.00000000       0.00044200       0.10386000       0.00000000
Ni       1.37059000       5.10226000       2.06523000      -0.00048800      -0.10472300      -0.00000000
Ni       1.34557000       9.28431000       2.06523000      -0.00108200       0.07475500       0.00000000
10
Lattice="2.80236 0.017576 0.0 1.331577 11.627125 -0.0 0.0 -0.0 4.131568" Properties=species:S:1:pos:R:3:forces:R:3 _name="_JSON [\"train_1st_stage_20\"]" _labels="_JSON [\"active_learning\"]" _id=5365807351844531561 energy=-4.933568758 stress="1.77583 0.01288 0.0 0.01288 -0.05512 0.0 0.0 0.0 1.01875" pbc="T T T"
Al       2.79629000       1.03755000      -0.00000000      -0.00001300       0.15792900       0.00000000
Al       2.77124000       5.21727000      -0.00000000       0.00011200       0.01971000       0.00000000
Al       2.74622000       9.38589000      -0.00000000      -0.00063300      -0.15957900       0.00000000
Al       2.73418000      11.39049000       2.06578000       0.00007400      -0.15798700       0.00000000
Al       2.78426000       3.04212000       2.06578000       0.00066800       0.16031000      -0.00000000
Al       2.75923000       7.21075000       2.06578000      -0.00012200      -0.02039000      -0.00000000
Ni       1.38255000       3.11880000      -0.00000000       0.00105500      -0.07219500      -0.00000000
Ni       1.35754000       7.30480000      -0.00000000       0.00042200       0.10217200       0.00000000
Ni       1.37057000       5.10571000       2.06578000      -0.00048400      -0.10236300      -0.00000000
Ni       1.34556000       9.29159000       2.06578000      -0.00107800       0.07239200       0.00000000
10
Lattice="2.777641 0.017579 0.0 1.319325 11.709783 -0.0 0.0 -0.0 4.121151" Properties=species:S:1:pos:R:3:forces:R:3 _name="_JSON [\"train_1st_stage_21\"]" _labels="_JSON [\"active_learning\"]" _id=-868635810805863755 energy=-4.935602749 stress="0.79641 0.04342 0.0 0.04342 0.17563 -0.0 0.0 -0.0 0.38311" pbc="T T T"
Al       2.77158000       1.05417000      -0.00000000      -0.00090400       0.15777800       0.00000000
Al       2.74659000       5.25497000      -0.00000000      -0.00037000       0.04665300      -0.00000000
Al       2.72156000       9.44284000      -0.00000000      -0.00046400      -0.12400900       0.00000100
Al       2.70957000      11.46204000       2.06058000       0.00090300      -0.15588100      -0.00000000
Al       2.75960000       3.07337000       2.06058000       0.00045900       0.12222900      -0.00000100
Al       2.73456000       7.26119000       2.06058000       0.00028700      -0.04681400       0.00000000
Ni       1.37029000       3.13451000      -0.00000000       0.00061800      -0.03041300       0.00000000
Ni       1.34528000       7.36515000      -0.00000000      -0.00055500       0.04941000      -0.00000000