215
Lattice="17.561274918 0.0 0.0 0.0 17.561274918 0.0 0.0 0.0 17.561274918" Properties=species:S:1:pos:R:3:forces:R:3 name=vP/vP_0_C3v_tdA_sc3k2cl_d0lda7 energy=-1036.52415885 virial="-11.23064 -0.09748 -0.09748 -0.09748 -11.23064 -0.09748 -0.09748 -0.09748 -11.23064" pbc="T T T"
In      10.06084000      10.06084000      10.06084000      -0.00089700      -0.00089700      -0.00089700
In      10.11753000       7.46048000       7.46048000      -0.00727500       0.00352200       0.00352200
In       7.46048000      10.11753000       7.46048000       0.00352200      -0.00727500       0.00352200
In       7.46048000       7.46048000      10.11753000       0.00352200       0.00352200      -0.00727500
In      13.15917000      10.24629000       7.31331000       0.00761100       0.00230100      -0.00199100
In      13.15917000       7.31331000      10.24629000       0.00761100      -0.00199100       0.00230100
In      10.24629000      13.15917000       7.31331000       0.00230100       0.00761100      -0.00199100
In      10.24629000       7.31331000      13.15917000       0.00230100      -0.00199100       0.00761100
In       7.31331000      13.15917000      10.24629000      -0.00199100       0.00761100       0.00230100
In       7.31331000      10.24629000      13.15917000      -0.00199100       0.00230100       0.00761100
In      10.24519000      10.24519000       4.39585000       0.00140300       0.00140300      -0.00977600
In      10.24519000       4.39585000      10.24519000       0.00140300      -0.00977600       0.00140300
In       4.39585000      10.24519000      10.24519000      -0.00977600       0.00140300       0.00140300
In       7.31705000       7.31705000       4.40190000      -0.00138500      -0.00138500      -0.00637000
In       7.31705000       4.40190000       7.31705000      -0.00138500      -0.00637000      -0.00138500
In       4.40190000       7.31705000       7.31705000      -0.00637000      -0.00138500      -0.00138500
In      13.12530000      13.12530000      10.23639000       0.00953900       0.00953900       0.00064100
In      13.12530000      10.23639000      13.12530000       0.00953900       0.00064100       0.00953900
In      10.23639000      13.12530000      13.12530000       0.00064100       0.00953900       0.00953900
In      13.13910000       7.31635000       4.41910000       0.00647600      -0.00199800      -0.00702600
In      13.13910000       4.41910000       7.31635000       0.00647600      -0.00702600      -0.00199800
In       7.31635000      13.13910000       4.41910000      -0.00199800       0.00647600      -0.00702600
In       4.41910000      13.13910000       7.31635000      -0.00702600       0.00647600      -0.00199800
In       7.31635000       4.41910000      13.13910000      -0.00199800      -0.00702600       0.00647600
In       4.41910000       7.31635000      13.13910000      -0.00702600      -0.00199800       0.00647600
In      10.24177000       4.42494000       4.42494000       0.00049100      -0.00679300      -0.00679300
In       4.42494000      10.24177000       4.42494000      -0.00679300       0.00049100      -0.00679300
In       4.42494000       4.42494000      10.24177000      -0.00679300      -0.00679300       0.00049100
In      16.09232000      10.23571000      10.23571000       0.00272000       0.00193600       0.00193600
In      10.23571000      16.09232000      10.23571000       0.00193600       0.00272000       0.00193600
In      10.23571000      10.23571000      16.09232000       0.00193600       0.00193600       0.00272000
In      16.09351000       7.32074000       7.32074000       0.00301500      -0.00340800      -0.00340800
In      13.16985000      13.16985000       4.38798000      -0.00114500      -0.00114500       0.00134400
In      13.16985000       4.38798000      13.16985000      -0.00114500       0.00134400      -0.00114500
In       7.32074000      16.09351000       7.32074000      -0.00340800       0.00301500      -0.00340800
In       7.32074000       7.32074000      16.09351000      -0.00340800      -0.00340800       0.00301500
In       4.38798000      13.16985000      13.16985000       0.00134400      -0.00114500      -0.00114500
In      10.23824000       7.32065000       1.46352000       0.00116700      -0.00236800      -0.00084200
In       7.32065000      10.23824000       1.46352000      -0.00236800       0.00116700      -0.00084200
In      10.23824000       1.46352000       7.32065000       0.00116700      -0.00084200      -0.00236800
In       7.32065000       1.46352000      10.23824000      -0.00236800      -0.00084200       0.00116700
In       1.46352000      10.23824000       7.32065000      -0.00084200       0.00116700      -0.00236800
In       1.46352000       7.32065000      10.23824000      -0.00084200      -0.00236800       0.00116700
In       4.39112000       4.39112000       4.39112000      -0.00024300      -0.00024300      -0.00024300
In      16.09243000      13.16702000       7.31796000       0.00075100       0.00006600      -0.00129900
In      13.16702000      16.09243000       7.31796000       0.00006600       0.00075100      -0.00129900
In      16.09243000       7.31796000      13.16702000       0.00075100      -0.00129900       0.00006600
In      13.16702000       7.31796000      16.09243000       0.00006600      -0.00129900       0.00075100
In       7.31796000      16.09243000      13.16702000      -0.00129900       0.00075100       0.00006600
In       7.31796000      13.16702000      16.09243000      -0.00129900       0.00006600       0.00075100
In      16.09263000      10.23994000       4.39141000       0.00232800       0.00065800      -0.00031600
In      16.09263000       4.39141000      10.23994000       0.00232800      -0.00031600       0.00065800
In      10.23994000      16.09263000       4.39141000       0.00065800       0.00232800      -0.00031600
In      10.23994000       4.39141000      16.09263000       0.00065800      -0.00031600       0.00232800
In       4.39141000      16.09263000      10.23994000      -0.00031600       0.00232800       0.00065800
In       4.39141000      10.23994000      16.09263000      -0.00031600       0.00065800       0.00232800
In      13.16630000      10.23965000       1.46400000       0.00032800       0.00154800      -0.00065800
In      10.23965000      13.16630000       1.46400000       0.00154800       0.00032800      -0.00065800
In      13.16630000       1.46400000      10.23965000       0.00032800      -0.00065800       0.00154800
In      10.23965000       1.46400000      13.16630000       0.00154800      -0.00065800       0.00032800
In       1.46400000      13.16630000      10.23965000      -0.00065800       0.00032800       0.00154800
In       1.46400000      10.23965000      13.16630000      -0.00065800       0.00154800       0.00032800
In       7.31932000       4.39313000       1.46742000      -0.00128000      -0.00031500      -0.00184800
In       7.31932000       1.46742000       4.39313000      -0.00128000      -0.00184800      -0.00031500
In       4.39313000       7.31932000       1.46742000      -0.00031500      -0.00128000      -0.00184800
In       4.39313000       1.46742000       7.31932000      -0.00031500      -0.00184800      -0.00128000
In       1.46742000       7.31932000       4.39313000      -0.00184800      -0.00128000      -0.00031500
In       1.46742000       4.39313000       7.31932000      -0.00184800      -0.00031500      -0.00128000
In      16.08817000      13.16227000      13.16227000       0.00049400       0.00057100       0.00057100
In      13.16227000      16.08817000      13.16227000       0.00057100       0.00049400       0.00057100
In      13.16227000      13.16227000      16.08817000       0.00057100       0.00057100       0.00049400
In      16.09404000       4.39274000       4.39274000      -0.00092200       0.00010700       0.00010700
In       4.39274000      16.09404000       4.39274000       0.00010700      -0.00092200       0.00010700
In       4.39274000       4.39274000      16.09404000       0.00010700       0.00010700      -0.00092200
In      13.16574000       4.39191000       1.46510000      -0.00042600       0.00031800       0.00073600
In      13.16574000       1.46510000       4.39191000      -0.00042600       0.00073600       0.00031800
In       4.39191000      13.16574000       1.46510000       0.00031800      -0.00042600       0.00073600
In       1.46510000      13.16574000       4.39191000       0.00073600      -0.00042600       0.00031800
In       4.39191000       1.46510000      13.16574000       0.00031800       0.00073600      -0.00042600
In       1.46510000       4.39191000      13.16574000       0.00073600       0.00031800      -0.00042600
In      16.08364000      16.08364000      10.23680000       0.00222400       0.00222400      -0.00040000
In      16.08364000      10.23680000      16.08364000       0.00222400      -0.00040000       0.00222400
In      10.23680000      16.08364000      16.08364000      -0.00040000       0.00222400       0.00222400
In      16.08921000       7.31983000       1.47010000       0.00078400       0.00022100      -0.00142800
In      16.08921000       1.47010000       7.31983000       0.00078400      -0.00142800       0.00022100
In       7.31983000      16.08921000       1.47010000       0.00022100       0.00078400      -0.00142800
In       1.47010000      16.08921000       7.31983000      -0.00142800       0.00078400       0.00022100
In       7.31983000       1.47010000      16.08921000       0.00022100      -0.00142800       0.00078400
In       1.47010000       7.31983000      16.08921000      -0.00142800       0.00022100       0.00078400
In      10.23816000       1.47002000       1.47002000      -0.00033100      -0.00103400      -0.00103400
In       1.47002000      10.23816000       1.47002000      -0.00103400      -0.00033100      -0.00103400
In       1.47002000       1.47002000      10.23816000      -0.00103400      -0.00103400      -0.00033100
In      16.09666000      16.09666000       4.39097000      -0.00029400      -0.00029400      -0.00003900
In      16.09666000       4.39097000      16.09666000      -0.00029400      -0.00003900      -0.00029400
In      16.09517000      13.16542000       1.45943000       0.00036700       0.00062400       0.00139300
In       4.39097000      16.09666000      16.09666000      -0.00003900      -0.00029400      -0.00029400
In      13.16542000      16.09517000       1.45943000       0.00062400       0.00036700       0.00139300
In      16.09517000       1.45943000      13.16542000       0.00036700       0.00139300       0.00062400
In      13.16542000       1.45943000      16.09517000       0.00062400       0.00139300       0.00036700
In       1.45943000      16.09517000      13.16542000       0.00139300       0.00036700       0.00062400
In       1.45943000      13.16542000      16.09517000       0.00139300       0.00062400       0.00036700
In       4.39236000       1.46284000       1.46284000      -0.00050100      -0.00038000      -0.00038000
In       1.46284000       4.39236000       1.46284000      -0.00038000      -0.00050100      -0.00038000
In       1.46284000       1.46284000       4.39236000      -0.00038000      -0.00038000      -0.00050100
In      16.09333000      16.09333000      16.09333000       0.00093700       0.00093700       0.00093700
In      16.09540000       1.46234000       1.46234000       0.00000400      -0.00013100      -0.00013100
In       1.46234000      16.09540000       1.46234000      -0.00013100       0.00000400      -0.00013100
In       1.46234000       1.46234000      16.09540000      -0.00013100      -0.00013100       0.00000400
P       11.64040000      11.64040000       8.78063000       0.00822700       0.00822700       0.00523500
P       11.64040000       8.78063000      11.64040000       0.00822700       0.00523500       0.00822700
P        8.78063000      11.64040000      11.64040000       0.00523500       0.00822700       0.00822700
P       11.66023000       8.77959000       5.89720000       0.00628000      -0.00206100      -0.00354200
P       11.66023000       5.89720000       8.77959000       0.00628000      -0.00354200      -0.00206100
P        8.77959000      11.66023000       5.89720000      -0.00206100       0.00628000      -0.00354200
P        8.77959000       5.89720000      11.66023000      -0.00206100      -0.00354200       0.00628000
P        5.89720000      11.66023000       8.77959000      -0.00354200       0.00628000      -0.00206100
P        5.89720000       8.77959000      11.66023000      -0.00354200      -0.00206100       0.00628000
P        8.78506000       5.90960000       5.90960000       0.00019200      -0.00685600      -0.00685600
P        5.90960000       8.78506000       5.90960000      -0.00685600       0.00019200      -0.00685600
P        5.90960000       5.90960000       8.78506000      -0.00685600      -0.00685600       0.00019200
P       14.62238000       8.77785000       8.77785000       0.00024500       0.00096400       0.00096400
P        8.77785000      14.62238000       8.77785000       0.00096400       0.00024500       0.00096400
P        8.77785000       8.77785000      14.62238000       0.00096400       0.00096400       0.00024500
P        8.77982000       8.77982000       2.93263000      -0.00109100      -0.00109100      -0.00024400
P        8.77982000       2.93263000       8.77982000      -0.00109100      -0.00024400      -0.00109100
P        2.93263000       8.77982000       8.77982000      -0.00024400      -0.00109100      -0.00109100
P       14.62174000      11.69571000      11.69571000      -0.00033400       0.00208600       0.00208600
P       11.69571000      14.62174000      11.69571000       0.00208600      -0.00033400       0.00208600
P       11.69571000      11.69571000      14.62174000       0.00208600       0.00208600      -0.00033400
P       14.62900000      11.70448000       5.85364000       0.00109100       0.00236300      -0.00039100
P       11.70448000      14.62900000       5.85364000       0.00236300       0.00109100      -0.00039100
P       14.62900000       5.85364000      11.70448000       0.00109100      -0.00039100       0.00236300
P       11.70448000       5.85364000      14.62900000       0.00236300      -0.00039100       0.00109100
P        5.85364000      14.62900000      11.70448000      -0.00039100       0.00109100       0.00236300
P        5.85364000      11.70448000      14.62900000      -0.00039100       0.00236300       0.00109100
P       14.62678000       5.85839000       5.85839000       0.00237800      -0.00080500      -0.00080500
P       11.70490000      11.70490000       2.92772000       0.00062700       0.00062700       0.00028400
P       11.70490000       2.92772000      11.70490000       0.00062700       0.00028400       0.00062700
P        5.85839000      14.62678000       5.85839000      -0.00080500       0.00237800      -0.00080500
P        5.85839000       5.85839000      14.62678000      -0.00080500      -0.00080500       0.00237800
P        2.92772000      11.70490000      11.70490000       0.00028400       0.00062700       0.00062700
P       11.69975000       5.85882000       2.93153000      -0.00020700      -0.00217500      -0.00194600
P       11.69975000       2.93153000       5.85882000      -0.00020700      -0.00194600      -0.00217500
P        5.85882000      11.69975000       2.93153000      -0.00217500      -0.00020700      -0.00194600
P        2.93153000      11.69975000       5.85882000      -0.00194600      -0.00020700      -0.00217500
P        5.85882000       2.93153000      11.69975000      -0.00217500      -0.00194600      -0.00020700
P        2.93153000       5.85882000      11.69975000      -0.00194600      -0.00217500      -0.00020700
P        5.85698000       5.85698000       2.93268000      -0.00155400      -0.00155400      -0.00162000
P        5.85698000       2.93268000       5.85698000      -0.00155400      -0.00162000      -0.00155400
P        2.93268000       5.85698000       5.85698000      -0.00162000      -0.00155400      -0.00155400
P       14.60696000      14.60696000       8.78327000       0.00099500       0.00099500       0.00138600
P       14.60696000       8.78327000      14.60696000       0.00099500       0.00138600       0.00099500
P        8.78327000      14.60696000      14.60696000       0.00138600       0.00099500       0.00099500
P       14.61401000       8.77566000       2.94345000       0.00228000      -0.00018500      -0.00173500
P       14.61401000       2.94345000       8.77566000       0.00228000      -0.00173500      -0.00018500
P        8.77566000      14.61401000       2.94345000      -0.00018500       0.00228000      -0.00173500
P        8.77566000       2.94345000      14.61401000      -0.00018500      -0.00173500       0.00228000
P        2.94345000      14.61401000       8.77566000      -0.00173500       0.00228000      -0.00018500
P        2.94345000       8.77566000      14.61401000      -0.00173500      -0.00018500       0.00228000
P        8.78461000       2.94678000       2.94678000       0.00102200      -0.00085900      -0.00085900
P        2.94678000       8.78461000       2.94678000      -0.00085900       0.00102200      -0.00085900
P        2.94678000       2.94678000       8.78461000      -0.00085900      -0.00085900       0.00102200
P       17.55872000      11.70347000       8.77903000      -0.00145300       0.00128100      -0.00102200
P       17.55872000       8.77903000      11.70347000      -0.00145300      -0.00102200       0.00128100
P       11.70347000      17.55872000       8.77903000       0.00128100      -0.00145300      -0.00102200
P        8.77903000      17.55872000      11.70347000      -0.00102200      -0.00145300       0.00128100
P       11.70347000       8.77903000      17.55872000       0.00128100      -0.00102200      -0.00145300
P        8.77903000      11.70347000      17.55872000      -0.00102200       0.00128100      -0.00145300
P       17.55955000       8.77926000       5.85463000      -0.00036400      -0.00009100      -0.00193100
P       17.55955000       5.85463000       8.77926000      -0.00036400      -0.00193100      -0.00009100
P        8.77926000      17.55955000       5.85463000      -0.00009100      -0.00036400      -0.00193100
P        5.85463000      17.55955000       8.77926000      -0.00193100      -0.00036400      -0.00009100
P        8.77926000       5.85463000      17.55955000      -0.00009100      -0.00193100      -0.00036400
P        5.85463000       8.77926000      17.55955000      -0.00193100      -0.00009100      -0.00036400
P       14.62850000      14.62850000      14.62850000      -0.00137400      -0.00137400      -0.00137400
P       14.63314000      14.63314000       2.92367000      -0.00142300      -0.00142300       0.00146900
P       14.63314000       2.92367000      14.63314000      -0.00142300       0.00146900      -0.00142300
P        2.92367000      14.63314000      14.63314000       0.00146900      -0.00142300      -0.00142300
P       14.63159000       2.92750000       2.92750000      -0.00213300       0.00086800       0.00086800
P        2.92750000      14.63159000       2.92750000       0.00086800      -0.00213300       0.00086800
P        2.92750000       2.92750000      14.63159000       0.00086800       0.00086800      -0.00213300
P        2.92715000       2.92715000       2.92715000       0.00048800       0.00048800       0.00048800
P       17.55633000      14.62818000      11.70168000      -0.00020800      -0.00085000      -0.00038200
P       17.55633000      11.70168000      14.62818000      -0.00020800      -0.00038200      -0.00085000
P       14.62818000      17.55633000      11.70168000      -0.00085000      -0.00020800      -0.00038200
P       14.62818000      11.70168000      17.55633000      -0.00085000      -0.00038200      -0.00020800
P       11.70168000      17.55633000      14.62818000      -0.00038200      -0.00020800      -0.00085000
P       11.70168000      14.62818000      17.55633000      -0.00038200      -0.00085000      -0.00020800
P       17.56058000      14.63070000       5.85590000      -0.00097600      -0.00320100      -0.00021500
P       14.63070000      17.56058000       5.85590000      -0.00320100      -0.00097600      -0.00021500
P       17.56058000       5.85590000      14.63070000      -0.00097600      -0.00021500      -0.00320100
P       14.63070000       5.85590000      17.56058000      -0.00320100      -0.00021500      -0.00097600
P       17.55963000      11.70252000       2.92728000      -0.00001400      -0.00057400       0.00191000
P        5.85590000      17.56058000      14.63070000      -0.00021500      -0.00097600      -0.00320100
P        5.85590000      14.63070000      17.56058000      -0.00021500      -0.00320100      -0.00097600
P       11.70252000      17.55963000       2.92728000      -0.00057400      -0.00001400       0.00191000
P       17.55963000       2.92728000      11.70252000      -0.00001400       0.00191000      -0.00057400
P       11.70252000       2.92728000      17.55963000      -0.00057400       0.00191000      -0.00001400
P       17.56069000       5.85702000       2.92924000       0.00004800      -0.00061800       0.00180000
P        2.92728000      17.55963000      11.70252000       0.00191000      -0.00001400      -0.00057400
P       17.56069000       2.92924000       5.85702000       0.00004800       0.00180000      -0.00061800
P        2.92728000      11.70252000      17.55963000       0.00191000      -0.00057400      -0.00001400
P        5.85702000      17.56069000       2.92924000      -0.00061800       0.00004800       0.00180000
P        2.92924000      17.56069000       5.85702000       0.00180000       0.00004800      -0.00061800
P        5.85702000       2.92924000      17.56069000      -0.00061800       0.00180000       0.00004800
P        2.92924000       5.85702000      17.56069000       0.00180000      -0.00061800       0.00004800
P       17.55804000      17.55804000       8.78003000       0.00010300       0.00010300       0.00125300
P       17.55804000       8.78003000      17.55804000       0.00010300       0.00125300       0.00010300
P        8.78003000      17.55804000      17.55804000       0.00125300       0.00010300       0.00010300
P       17.55882000      17.55882000      14.63149000       0.00025100       0.00025100      -0.00050800
P       17.55882000      14.63149000      17.55882000       0.00025100      -0.00050800       0.00025100
P       14.63149000      17.55882000      17.55882000      -0.00050800       0.00025100       0.00025100
P       17.56057000      17.56057000       2.92690000      -0.00042700      -0.00042700       0.00010600
P       17.56057000       2.92690000      17.56057000      -0.00042700       0.00010600      -0.00042700
P        2.92690000      17.56057000      17.56057000       0.00010600      -0.00042700      -0.00042700
215
Lattice="17.561274918 0.0 0.0 0.0 17.561274918 0.0 0.0 0.0 17.561274918" Properties=species:S:1:pos:R:3:forces:R:3 name=vP/vP_0_C3v_tdA_sc3k2cl_d0lda5 energy=-1036.52261577 virial="-11.32354 -0.10922 -0.10922 -0.10922 -11.32354 -0.10922 -0.10922 -0.10922 -11.32354" pbc="T T T"
In      10.05305000      10.05305000      10.05305000       0.01158900       0.01158900       0.01158900
In      10.11160000       7.46691000       7.46691000       0.00220100      -0.00912700      -0.00912700
In       7.46691000      10.11160000       7.46691000      -0.00912700       0.00220100      -0.00912700
In       7.46691000       7.46691000      10.11160000      -0.00912700      -0.00912700       0.00220100
In      13.15899000      10.24678000       7.31252000      -0.00402200       0.00423000       0.00414800
In      13.15899000       7.31252000      10.24678000      -0.00402200       0.00414800       0.00423000
In      10.24678000      13.15899000       7.31252000       0.00423000      -0.00402200       0.00414800
In      10.24678000       7.31252000      13.15899000       0.00423000       0.00414800      -0.00402200
In       7.31252000      13.15899000      10.24678000       0.00414800      -0.00402200       0.00423000
In       7.31252000      10.24678000      13.15899000       0.00414800       0.00423000      -0.00402200
In      10.24581000      10.24581000       4.39550000      -0.00138500      -0.00138500       0.00862100
In      10.24581000       4.39550000      10.24581000      -0.00138500       0.00862100      -0.00138500
In       4.39550000      10.24581000      10.24581000       0.00862100      -0.00138500      -0.00138500
In       7.31722000       7.31722000       4.40228000      -0.00331900      -0.00331900       0.00446700
In       7.31722000       4.40228000       7.31722000      -0.00331900       0.00446700      -0.00331900
In       4.40228000       7.31722000       7.31722000       0.00446700      -0.00331900      -0.00331900
In      13.12431000      13.12431000      10.23565000       0.00095500       0.00095500       0.01035000
In      13.12431000      10.23565000      13.12431000       0.00095500       0.01035000       0.00095500
In      10.23565000      13.12431000      13.12431000       0.01035000       0.00095500       0.00095500
In      13.13833000       7.31694000       4.42007000       0.00371900      -0.01228000      -0.00477300
In      13.13833000       4.42007000       7.31694000       0.00371900      -0.00477300      -0.01228000
In       7.31694000      13.13833000       4.42007000      -0.01228000       0.00371900      -0.00477300
In       4.42007000      13.13833000       7.31694000      -0.00477300       0.00371900      -0.01228000
In       7.31694000       4.42007000      13.13833000      -0.01228000      -0.00477300       0.00371900
In       4.42007000       7.31694000      13.13833000      -0.00477300      -0.01228000       0.00371900
In      10.24171000       4.42533000       4.42533000       0.00865600       0.00018300       0.00018300
In       4.42533000      10.24171000       4.42533000       0.00018300       0.00865600       0.00018300
In       4.42533000       4.42533000      10.24171000       0.00018300       0.00018300       0.00865600
In      16.09227000      10.23507000      10.23507000      -0.00419400       0.00453500       0.00453500
In      10.23507000      16.09227000      10.23507000       0.00453500      -0.00419400       0.00453500
In      10.23507000      10.23507000      16.09227000       0.00453500       0.00453500      -0.00419400
In      16.09364000       7.32114000       7.32114000      -0.00301600       0.00004300       0.00004300
In      13.17015000      13.17015000       4.38763000      -0.00184100      -0.00184100       0.00346000
In      13.17015000       4.38763000      13.17015000      -0.00184100       0.00346000      -0.00184100
In       7.32114000      16.09364000       7.32114000       0.00004300      -0.00301600       0.00004300
In       7.32114000       7.32114000      16.09364000       0.00004300       0.00004300      -0.00301600
In       4.38763000      13.17015000      13.17015000       0.00346000      -0.00184100      -0.00184100
In      10.23797000       7.32113000       1.46346000       0.00160400      -0.00249800       0.00095600
In       7.32113000      10.23797000       1.46346000      -0.00249800       0.00160400       0.00095600
In      10.23797000       1.46346000       7.32113000       0.00160400       0.00095600      -0.00249800
In       7.32113000       1.46346000      10.23797000      -0.00249800       0.00095600       0.00160400
In       1.46346000      10.23797000       7.32113000       0.00095600       0.00160400      -0.00249800
In       1.46346000       7.32113000      10.23797000       0.00095600      -0.00249800       0.00160400
In       4.39120000       4.39120000       4.39120000       0.00152700       0.00152700       0.00152700
In      16.09301000      13.16737000       7.31800000      -0.00638700      -0.00200900       0.00096900
In      13.16737000      16.09301000       7.31800000      -0.00200900      -0.00638700       0.00096900
In      16.09301000       7.31800000      13.16737000      -0.00638700       0.00096900      -0.00200900
In      13.16737000       7.31800000      16.09301000      -0.00200900       0.00096900      -0.00638700
In       7.31800000      16.09301000      13.16737000       0.00096900      -0.00638700      -0.00200900
In       7.31800000      13.16737000      16.09301000       0.00096900      -0.00200900      -0.00638700
In      16.09315000      10.23969000       4.39110000      -0.00482000       0.00272500       0.00400900
In      16.09315000       4.39110000      10.23969000      -0.00482000       0.00400900       0.00272500
In      10.23969000      16.09315000       4.39110000       0.00272500      -0.00482000       0.00400900
In      10.23969000       4.39110000      16.09315000       0.00272500       0.00400900      -0.00482000
In       4.39110000      16.09315000      10.23969000       0.00400900      -0.00482000       0.00272500
In       4.39110000      10.23969000      16.09315000       0.00400900       0.00272500      -0.00482000
In      13.16667000      10.23962000       1.46371000      -0.00431500       0.00017600       0.00127400
In      10.23962000      13.16667000       1.46371000       0.00017600      -0.00431500       0.00127400
In      13.16667000       1.46371000      10.23962000      -0.00431500       0.00127400       0.00017600
In      10.23962000       1.46371000      13.16667000       0.00017600       0.00127400      -0.00431500
In       1.46371000      13.16667000      10.23962000       0.00127400      -0.00431500       0.00017600
In       1.46371000      10.23962000      13.16667000       0.00127400       0.00017600      -0.00431500
In       7.31951000       4.39327000       1.46735000      -0.00029000       0.00089200       0.00292900
In       7.31951000       1.46735000       4.39327000      -0.00029000       0.00292900       0.00089200
In       4.39327000       7.31951000       1.46735000       0.00089200      -0.00029000       0.00292900